LAMMPS data file via write_data, version 16 Mar 2018, timestep = 34

272 atoms
1 atom types

-1.0000000000000000e+02 1.0000000000000000e+02 xlo xhi
-1.0000000000000000e+02 1.0000000000000000e+02 ylo yhi
-1.0000000000000000e+02 1.0000000000000000e+01 zlo zhi

Masses

1 12.01

Atoms # atomic

1 1 -1.5036723085995360e+00 6.9602371197445545e-01 0.0000000000000000e+00 0 0 0
2 1 -3.0861200116220933e-01 1.1415137503248490e-02 0.0000000000000000e+00 0 0 0
3 1 9.5355330912472491e-01 6.5841845975315771e-01 0.0000000000000000e+00 0 0 0
4 1 2.2132247364855089e+00 4.1702900319861846e-02 0.0000000000000000e+00 0 0 0
5 1 3.4637650469875303e+00 6.7724285911796078e-01 0.0000000000000000e+00 0 0 0
6 1 4.7160838321656913e+00 5.4249776881356029e-02 0.0000000000000000e+00 0 0 0
7 1 5.9612978871559150e+00 6.9279194578521242e-01 0.0000000000000000e+00 0 0 0
8 1 7.2102680645581163e+00 6.5556415055037620e-02 0.0000000000000000e+00 0 0 0
9 1 8.4538621285552527e+00 7.0292955703152116e-01 0.0000000000000000e+00 0 0 0
10 1 9.7013631907118096e+00 7.3011929954375179e-02 0.0000000000000000e+00 0 0 0
11 1 1.0945039759750719e+01 7.0750930153544977e-01 0.0000000000000000e+00 0 0 0
12 1 1.2191587468412648e+01 7.6050318777527756e-02 0.0000000000000000e+00 0 0 0
13 1 1.3435358237100655e+01 7.1185824103865791e-01 0.0000000000000000e+00 0 0 0
14 1 1.4681629497057193e+01 8.1415824110215945e-02 0.0000000000000000e+00 0 0 0
15 1 1.5924785583266408e+01 7.1823459718949645e-01 0.0000000000000000e+00 0 0 0
16 1 1.7169594549661969e+01 8.6533324495159811e-02 0.0000000000000000e+00 0 0 0
17 1 1.8412619515043353e+01 7.2208412447338932e-01 0.0000000000000000e+00 0 0 0
18 1 1.9656094436541554e+01 8.7367227279636417e-02 0.0000000000000000e+00 0 0 0
19 1 2.0900059937041700e+01 7.2054683872537184e-01 0.0000000000000000e+00 0 0 0
20 1 2.2142618754703687e+01 8.3956110315177634e-02 0.0000000000000000e+00 0 0 0
21 1 2.3388571794684076e+01 7.1464617740000269e-01 0.0000000000000000e+00 0 0 0
22 1 2.4632030171794845e+01 7.8611169319203963e-02 0.0000000000000000e+00 0 0 0
23 1 2.5878227423338920e+01 7.1058713408221752e-01 0.0000000000000000e+00 0 0 0
24 1 2.7122061784567943e+01 7.5569229705782268e-02 0.0000000000000000e+00 0 0 0
25 1 2.8368488271238395e+01 7.0661613249824928e-01 0.0000000000000000e+00 0 0 0
26 1 2.9612457886605739e+01 7.0637138618786482e-02 0.0000000000000000e+00 0 0 0
27 1 3.0860482904863115e+01 6.9857761372459326e-01 0.0000000000000000e+00 0 0 0
28 1 3.2104508021366001e+01 6.0082527626963374e-02 0.0000000000000000e+00 0 0 0
29 1 3.3354323398517572e+01 6.8629181895202029e-01 0.0000000000000000e+00 0 0 0
30 1 3.4601939731748217e+01 4.9941716810124701e-02 0.0000000000000000e+00 0 0 0
31 1 3.5856052984517554e+01 6.7234035005766424e-01 0.0000000000000000e+00 0 0 0
32 1 3.7113537768866138e+01 4.8503583270604542e-02 0.0000000000000000e+00 0 0 0
33 1 3.8383677962106724e+01 6.5861192944180824e-01 0.0000000000000000e+00 0 0 0
34 1 3.9549247249494577e+01 -3.8916306886078791e-02 0.0000000000000000e+00 0 0 0
35 1 -1.4639355579127344e+00 2.0725551046565491e+00 0.0000000000000000e+00 0 0 0
36 1 -2.5625150337678337e-01 2.8228856296604161e+00 0.0000000000000000e+00 0 0 0
37 1 9.7673428305706678e-01 2.0990140131760442e+00 0.0000000000000000e+00 0 0 0
70 1 -2.1549576250504457e-01 4.2266650255022382e+00 0.0000000000000000e+00 0 0 0
38 1 2.2265470142996602e+00 2.8047247747377404e+00 0.0000000000000000e+00 0 0 0
39 1 3.4709840718149136e+00 2.1081305874611176e+00 0.0000000000000000e+00 0 0 0
40 1 4.7156693981129658e+00 2.8160650461596481e+00 0.0000000000000000e+00 0 0 0
72 1 2.2551772550672289e+00 4.2309992835048034e+00 0.0000000000000000e+00 0 0 0
74 1 4.7307624932440602e+00 4.2419385828538605e+00 0.0000000000000000e+00 0 0 0
41 1 5.9625291171735118e+00 2.1224421363587700e+00 0.0000000000000000e+00 0 0 0
42 1 7.2063558698920804e+00 2.8274019849627741e+00 0.0000000000000000e+00 0 0 0
76 1 7.2127983060094820e+00 4.2524530607863911e+00 0.0000000000000000e+00 0 0 0
43 1 8.4530075739206350e+00 2.1323250821644755e+00 0.0000000000000000e+00 0 0 0
44 1 9.6974825056357901e+00 2.8329854131146917e+00 0.0000000000000000e+00 0 0 0
45 1 1.0943442777579627e+01 2.1367408860905059e+00 0.0000000000000000e+00 0 0 0
78 1 9.6994367174575480e+00 4.2573913810018320e+00 0.0000000000000000e+00 0 0 0
46 1 1.2186870460047274e+01 2.8372586044270354e+00 0.0000000000000000e+00 0 0 0
47 1 1.3432628309490589e+01 2.1412827146305151e+00 0.0000000000000000e+00 0 0 0
48 1 1.4676198025579371e+01 2.8419980614614944e+00 0.0000000000000000e+00 0 0 0
80 1 1.2187144443608823e+01 4.2611825562007031e+00 0.0000000000000000e+00 0 0 0
82 1 1.4675844468759244e+01 4.2658099470652848e+00 0.0000000000000000e+00 0 0 0
49 1 1.5922126716787073e+01 2.1467522572188247e+00 0.0000000000000000e+00 0 0 0
50 1 1.7165922691391259e+01 2.8460498752423051e+00 0.0000000000000000e+00 0 0 0
84 1 1.7165890821180970e+01 4.2692975639511621e+00 0.0000000000000000e+00 0 0 0
51 1 1.8411763813467118e+01 2.1505576009308340e+00 0.0000000000000000e+00 0 0 0
52 1 1.9657522605364026e+01 2.8466950254973447e+00 0.0000000000000000e+00 0 0 0
53 1 2.0902299510402365e+01 2.1487855214449105e+00 0.0000000000000000e+00 0 0 0
86 1 1.9657600060494932e+01 4.2702370947329422e+00 0.0000000000000000e+00 0 0 0
54 1 2.2148027616267377e+01 2.8441167212704905e+00 0.0000000000000000e+00 0 0 0
55 1 2.3391365950269552e+01 2.1438935601649418e+00 0.0000000000000000e+00 0 0 0
56 1 2.4637129831170284e+01 2.8399524360176347e+00 0.0000000000000000e+00 0 0 0
88 1 2.2148388593456964e+01 4.2673750475279091e+00 0.0000000000000000e+00 0 0 0
90 1 2.4637478655690906e+01 4.2639482230623402e+00 0.0000000000000000e+00 0 0 0
57 1 2.5880548247193296e+01 2.1396683105992325e+00 0.0000000000000000e+00 0 0 0
58 1 2.7126360120739225e+01 2.8358975694185378e+00 0.0000000000000000e+00 0 0 0
92 1 2.7125738966953719e+01 4.2600632296369323e+00 0.0000000000000000e+00 0 0 0
59 1 2.8370278393708940e+01 2.1355890850027213e+00 0.0000000000000000e+00 0 0 0
60 1 2.9616745514653783e+01 2.8308299792842893e+00 0.0000000000000000e+00 0 0 0
61 1 3.0861155643182848e+01 2.1282494219002279e+00 0.0000000000000000e+00 0 0 0
94 1 2.9613558419632092e+01 4.2557430135849037e+00 0.0000000000000000e+00 0 0 0
62 1 3.2107471330560131e+01 2.8231951947112828e+00 0.0000000000000000e+00 0 0 0
63 1 3.3350924114701122e+01 2.1164308320070853e+00 0.0000000000000000e+00 0 0 0
64 1 3.4597656516550302e+01 2.8104093700710022e+00 0.0000000000000000e+00 0 0 0
96 1 3.2098362441357317e+01 4.2482081173025801e+00 0.0000000000000000e+00 0 0 0
98 1 3.4577196046732496e+01 4.2359923219143472e+00 0.0000000000000000e+00 0 0 0
65 1 3.5843251709397734e+01 2.1025390739956178e+00 0.0000000000000000e+00 0 0 0
66 1 3.7090034029406368e+01 2.7953488115548004e+00 0.0000000000000000e+00 0 0 0
100 1 3.7051504098185802e+01 4.2292131493685154e+00 0.0000000000000000e+00 0 0 0
67 1 3.8344433538195268e+01 2.0775475277653856e+00 0.0000000000000000e+00 0 0 0
68 1 3.9522683897453653e+01 2.8603242874773400e+00 0.0000000000000000e+00 0 0 0
102 1 3.9479436799577641e+01 4.2272213286986782e+00 0.0000000000000000e+00 0 0 0
69 1 -1.4031249046728396e+00 4.9938087665741762e+00 0.0000000000000000e+00 0 0 0
71 1 1.0235612678084118e+00 4.9432294310182527e+00 0.0000000000000000e+00 0 0 0
103 1 -1.3852687702586068e+00 6.3602437596605128e+00 0.0000000000000000e+00 0 0 0
104 1 -1.8212839231748473e-01 7.0999617441446281e+00 0.0000000000000000e+00 0 0 0
105 1 1.0435815687193650e+00 6.3722897938892391e+00 0.0000000000000000e+00 0 0 0
73 1 3.4918225273978525e+00 4.9466295223567061e+00 0.0000000000000000e+00 0 0 0
106 1 2.2757516228792092e+00 7.0864767502582051e+00 0.0000000000000000e+00 0 0 0
107 1 3.5072785035335015e+00 6.3724510597204542e+00 0.0000000000000000e+00 0 0 0
108 1 4.7420744737196641e+00 7.0861923300453276e+00 0.0000000000000000e+00 0 0 0
75 1 5.9703825327090847e+00 4.9534519473407093e+00 0.0000000000000000e+00 0 0 0
109 1 5.9796110267667908e+00 6.3789541240369676e+00 0.0000000000000000e+00 0 0 0
110 1 7.2189019949955791e+00 7.0863118145382673e+00 0.0000000000000000e+00 0 0 0
77 1 8.4556064001827309e+00 4.9570450605602892e+00 0.0000000000000000e+00 0 0 0
79 1 1.0942725979507639e+01 4.9598328174240294e+00 0.0000000000000000e+00 0 0 0
111 1 8.4599605350833844e+00 6.3824238119027834e+00 0.0000000000000000e+00 0 0 0
112 1 9.7018694127082377e+00 7.0864724083342256e+00 0.0000000000000000e+00 0 0 0
113 1 1.0944597248726691e+01 6.3846491996227783e+00 0.0000000000000000e+00 0 0 0
81 1 1.3430487108900131e+01 4.9628744224801951e+00 0.0000000000000000e+00 0 0 0
114 1 1.2187326964755830e+01 7.0868811675425611e+00 0.0000000000000000e+00 0 0 0
115 1 1.3431219142058289e+01 6.3872292385985441e+00 0.0000000000000000e+00 0 0 0
116 1 1.4675404062644841e+01 7.0870571626727514e+00 0.0000000000000000e+00 0 0 0
83 1 1.5920119520989298e+01 4.9655561298304285e+00 0.0000000000000000e+00 0 0 0
117 1 1.5920204280636085e+01 6.3891036043069409e+00 0.0000000000000000e+00 0 0 0
118 1 1.7165120414337551e+01 7.0872553803738310e+00 0.0000000000000000e+00 0 0 0
85 1 1.8411449915985568e+01 4.9669761979078180e+00 0.0000000000000000e+00 0 0 0
87 1 2.0903837190470750e+01 4.9663521748813517e+00 0.0000000000000000e+00 0 0 0
119 1 1.8411367102547612e+01 6.3908144176409891e+00 0.0000000000000000e+00 0 0 0
120 1 1.9657932107236359e+01 7.0871391680257698e+00 0.0000000000000000e+00 0 0 0
121 1 2.0903775803177133e+01 6.3899817752228323e+00 0.0000000000000000e+00 0 0 0
89 1 2.3393566812752812e+01 4.9642061547839749e+00 0.0000000000000000e+00 0 0 0
122 1 2.2149105628629844e+01 7.0872346327697997e+00 0.0000000000000000e+00 0 0 0
123 1 2.3393674128253998e+01 6.3881870527395792e+00 0.0000000000000000e+00 0 0 0
124 1 2.4638325477133112e+01 7.0869656415440705e+00 0.0000000000000000e+00 0 0 0
91 1 2.5882408706958671e+01 4.9620824690690721e+00 0.0000000000000000e+00 0 0 0
125 1 2.5881969164645387e+01 6.3864794773958060e+00 0.0000000000000000e+00 0 0 0
126 1 2.7125628996954575e+01 7.0866354830634055e+00 0.0000000000000000e+00 0 0 0
93 1 2.8370177507851707e+01 4.9588375148501553e+00 0.0000000000000000e+00 0 0 0
95 1 3.0857200681363224e+01 4.9556796000324876e+00 0.0000000000000000e+00 0 0 0
127 1 2.8367765484602490e+01 6.3835582359600220e+00 0.0000000000000000e+00 0 0 0
128 1 2.9609533687374839e+01 7.0863434543514154e+00 0.0000000000000000e+00 0 0 0
129 1 3.0850743163460532e+01 6.3812593790897099e+00 0.0000000000000000e+00 0 0 0
97 1 3.3339344297482477e+01 4.9501374511078433e+00 0.0000000000000000e+00 0 0 0
130 1 3.2090403224349643e+01 7.0863629545390854e+00 0.0000000000000000e+00 0 0 0
131 1 3.3327278780605887e+01 6.3758000516212761e+00 0.0000000000000000e+00 0 0 0
132 1 3.4562397823983595e+01 7.0861008850611453e+00 0.0000000000000000e+00 0 0 0
99 1 3.5813283623288932e+01 4.9429083121520101e+00 0.0000000000000000e+00 0 0 0
133 1 3.5794033914464308e+01 6.3689287820662202e+00 0.0000000000000000e+00 0 0 0
134 1 3.7023064878139223e+01 7.0850347932722935e+00 0.0000000000000000e+00 0 0 0
101 1 3.8273429576723622e+01 4.9641461624958820e+00 0.0000000000000000e+00 0 0 0
135 1 3.8253447480137886e+01 6.3635210571587066e+00 0.0000000000000000e+00 0 0 0
136 1 3.9449510380262303e+01 7.1159014936816662e+00 0.0000000000000000e+00 0 0 0
137 1 -1.3852687702586106e+00 9.2377562403394915e+00 0.0000000000000000e+00 0 0 0
138 1 -1.8212839231748401e-01 8.4980382558553664e+00 0.0000000000000000e+00 0 0 0
139 1 1.0435815687193613e+00 9.2257102061107705e+00 0.0000000000000000e+00 0 0 0
171 1 -1.4031249046728429e+00 1.0604191233425823e+01 0.0000000000000000e+00 0 0 0
172 1 -2.1549576250504451e-01 1.1371334974497763e+01 0.0000000000000000e+00 0 0 0
173 1 1.0235612678084147e+00 1.0654770568981750e+01 0.0000000000000000e+00 0 0 0
140 1 2.2757516228792087e+00 8.5115232497417939e+00 0.0000000000000000e+00 0 0 0
141 1 3.5072785035335006e+00 9.2255489402795483e+00 0.0000000000000000e+00 0 0 0
142 1 4.7420744737196667e+00 8.5118076699546688e+00 0.0000000000000000e+00 0 0 0
174 1 2.2551772550672258e+00 1.1367000716495198e+01 0.0000000000000000e+00 0 0 0
175 1 3.4918225273978569e+00 1.0651370477643296e+01 0.0000000000000000e+00 0 0 0
176 1 4.7307624932440646e+00 1.1356061417146140e+01 0.0000000000000000e+00 0 0 0
143 1 5.9796110267667872e+00 9.2190458759630332e+00 0.0000000000000000e+00 0 0 0
144 1 7.2189019949955888e+00 8.5116881854617343e+00 0.0000000000000000e+00 0 0 0
177 1 5.9703825327090829e+00 1.0644548052659287e+01 0.0000000000000000e+00 0 0 0
178 1 7.2127983060094794e+00 1.1345546939213607e+01 0.0000000000000000e+00 0 0 0
145 1 8.4599605350833880e+00 9.2155761880972129e+00 0.0000000000000000e+00 0 0 0
146 1 9.7018694127082359e+00 8.5115275916657680e+00 0.0000000000000000e+00 0 0 0
147 1 1.0944597248726691e+01 9.2133508003772189e+00 0.0000000000000000e+00 0 0 0
179 1 8.4556064001827327e+00 1.0640954939439712e+01 0.0000000000000000e+00 0 0 0
180 1 9.6994367174575444e+00 1.1340608618998168e+01 0.0000000000000000e+00 0 0 0
181 1 1.0942725979507637e+01 1.0638167182575970e+01 0.0000000000000000e+00 0 0 0
148 1 1.2187326964755831e+01 8.5111188324574432e+00 0.0000000000000000e+00 0 0 0
149 1 1.3431219142058289e+01 9.2107707614014611e+00 0.0000000000000000e+00 0 0 0
150 1 1.4675404062644832e+01 8.5109428373272475e+00 0.0000000000000000e+00 0 0 0
182 1 1.2187144443608828e+01 1.1336817443799299e+01 0.0000000000000000e+00 0 0 0
183 1 1.3430487108900129e+01 1.0635125577519799e+01 0.0000000000000000e+00 0 0 0
184 1 1.4675844468759248e+01 1.1332190052934713e+01 0.0000000000000000e+00 0 0 0
151 1 1.5920204280636087e+01 9.2088963956930563e+00 0.0000000000000000e+00 0 0 0
152 1 1.7165120414337554e+01 8.5107446196261751e+00 0.0000000000000000e+00 0 0 0
185 1 1.5920119520989291e+01 1.0632443870169569e+01 0.0000000000000000e+00 0 0 0
186 1 1.7165890821180980e+01 1.1328702436048836e+01 0.0000000000000000e+00 0 0 0
153 1 1.8411367102547615e+01 9.2071855823589992e+00 0.0000000000000000e+00 0 0 0
154 1 1.9657932107236352e+01 8.5108608319742292e+00 0.0000000000000000e+00 0 0 0
155 1 2.0903775803177123e+01 9.2080182247771614e+00 0.0000000000000000e+00 0 0 0
187 1 1.8411449915985564e+01 1.0631023802092178e+01 0.0000000000000000e+00 0 0 0
188 1 1.9657600060494943e+01 1.1327762905267058e+01 0.0000000000000000e+00 0 0 0
189 1 2.0903837190470757e+01 1.0631647825118648e+01 0.0000000000000000e+00 0 0 0
156 1 2.2149105628629844e+01 8.5107653672301993e+00 0.0000000000000000e+00 0 0 0
157 1 2.3393674128254002e+01 9.2098129472604171e+00 0.0000000000000000e+00 0 0 0
158 1 2.4638325477133115e+01 8.5110343584559232e+00 0.0000000000000000e+00 0 0 0
190 1 2.2148388593456961e+01 1.1330624952472093e+01 0.0000000000000000e+00 0 0 0
191 1 2.3393566812752809e+01 1.0633793845216024e+01 0.0000000000000000e+00 0 0 0
192 1 2.4637478655690909e+01 1.1334051776937661e+01 0.0000000000000000e+00 0 0 0
159 1 2.5881969164645394e+01 9.2115205226041859e+00 0.0000000000000000e+00 0 0 0
160 1 2.7125628996954575e+01 8.5113645169365846e+00 0.0000000000000000e+00 0 0 0
193 1 2.5882408706958675e+01 1.0635917530930932e+01 0.0000000000000000e+00 0 0 0
194 1 2.7125738966953719e+01 1.1337936770363070e+01 0.0000000000000000e+00 0 0 0
161 1 2.8367765484602490e+01 9.2144417640399858e+00 0.0000000000000000e+00 0 0 0
162 1 2.9609533687374839e+01 8.5116565456485844e+00 0.0000000000000000e+00 0 0 0
163 1 3.0850743163460532e+01 9.2167406209102865e+00 0.0000000000000000e+00 0 0 0
195 1 2.8370177507851718e+01 1.0639162485149846e+01 0.0000000000000000e+00 0 0 0
196 1 2.9613558419632081e+01 1.1342256986415091e+01 0.0000000000000000e+00 0 0 0
197 1 3.0857200681363224e+01 1.0642320399967515e+01 0.0000000000000000e+00 0 0 0
164 1 3.2090403224349643e+01 8.5116370454609136e+00 0.0000000000000000e+00 0 0 0
165 1 3.3327278780605887e+01 9.2221999483787211e+00 0.0000000000000000e+00 0 0 0
166 1 3.4562397823983602e+01 8.5118991149388581e+00 0.0000000000000000e+00 0 0 0
198 1 3.2098362441357317e+01 1.1349791882697421e+01 0.0000000000000000e+00 0 0 0
199 1 3.3339344297482477e+01 1.0647862548892160e+01 0.0000000000000000e+00 0 0 0
200 1 3.4577196046732489e+01 1.1362007678085655e+01 0.0000000000000000e+00 0 0 0
167 1 3.5794033914464308e+01 9.2290712179337824e+00 0.0000000000000000e+00 0 0 0
168 1 3.7023064878139223e+01 8.5129652067277082e+00 0.0000000000000000e+00 0 0 0
201 1 3.5813283623288939e+01 1.0655091687847991e+01 0.0000000000000000e+00 0 0 0
202 1 3.7051504098185809e+01 1.1368786850631476e+01 0.0000000000000000e+00 0 0 0
169 1 3.8253447480137886e+01 9.2344789428412870e+00 0.0000000000000000e+00 0 0 0
170 1 3.9449510380262303e+01 8.4820985063183389e+00 0.0000000000000000e+00 0 0 0
203 1 3.8273429576723629e+01 1.0633853837504127e+01 0.0000000000000000e+00 0 0 0
204 1 3.9479436799577641e+01 1.1370778671301320e+01 0.0000000000000000e+00 0 0 0
205 1 -1.4639355579127327e+00 1.3525444895343449e+01 0.0000000000000000e+00 0 0 0
206 1 -2.5625150337677810e-01 1.2775114370339580e+01 0.0000000000000000e+00 0 0 0
207 1 9.7673428305706422e-01 1.3498985986823957e+01 0.0000000000000000e+00 0 0 0
208 1 2.2265470142996615e+00 1.2793275225262260e+01 0.0000000000000000e+00 0 0 0
209 1 3.4709840718149088e+00 1.3489869412538885e+01 0.0000000000000000e+00 0 0 0
210 1 4.7156693981129658e+00 1.2781934953840352e+01 0.0000000000000000e+00 0 0 0
211 1 5.9625291171735046e+00 1.3475557863641226e+01 0.0000000000000000e+00 0 0 0
212 1 7.2063558698920875e+00 1.2770598015037226e+01 0.0000000000000000e+00 0 0 0
213 1 8.4530075739206243e+00 1.3465674917835530e+01 0.0000000000000000e+00 0 0 0
214 1 9.6974825056357989e+00 1.2765014586885309e+01 0.0000000000000000e+00 0 0 0
215 1 1.0943442777579616e+01 1.3461259113909495e+01 0.0000000000000000e+00 0 0 0
216 1 1.2186870460047281e+01 1.2760741395572969e+01 0.0000000000000000e+00 0 0 0
217 1 1.3432628309490575e+01 1.3456717285369482e+01 0.0000000000000000e+00 0 0 0
218 1 1.4676198025579373e+01 1.2756001938538505e+01 0.0000000000000000e+00 0 0 0
219 1 1.5922126716787064e+01 1.3451247742781172e+01 0.0000000000000000e+00 0 0 0
220 1 1.7165922691391266e+01 1.2751950124757695e+01 0.0000000000000000e+00 0 0 0
221 1 1.8411763813467111e+01 1.3447442399069168e+01 0.0000000000000000e+00 0 0 0
222 1 1.9657522605364029e+01 1.2751304974502649e+01 0.0000000000000000e+00 0 0 0
223 1 2.0902299510402365e+01 1.3449214478555090e+01 0.0000000000000000e+00 0 0 0
224 1 2.2148027616267385e+01 1.2753883278729502e+01 0.0000000000000000e+00 0 0 0
225 1 2.3391365950269545e+01 1.3454106439835064e+01 0.0000000000000000e+00 0 0 0
226 1 2.4637129831170284e+01 1.2758047563982361e+01 0.0000000000000000e+00 0 0 0
227 1 2.5880548247193293e+01 1.3458331689400767e+01 0.0000000000000000e+00 0 0 0
228 1 2.7126360120739228e+01 1.2762102430581455e+01 0.0000000000000000e+00 0 0 0
229 1 2.8370278393708944e+01 1.3462410914997283e+01 0.0000000000000000e+00 0 0 0
230 1 2.9616745514653790e+01 1.2767170020715712e+01 0.0000000000000000e+00 0 0 0
231 1 3.0861155643182844e+01 1.3469750578099774e+01 0.0000000000000000e+00 0 0 0
232 1 3.2107471330560138e+01 1.2774804805288715e+01 0.0000000000000000e+00 0 0 0
233 1 3.3350924114701122e+01 1.3481569167992914e+01 0.0000000000000000e+00 0 0 0
234 1 3.4597656516550302e+01 1.2787590629929001e+01 0.0000000000000000e+00 0 0 0
235 1 3.5843251709397734e+01 1.3495460926004387e+01 0.0000000000000000e+00 0 0 0
236 1 3.7090034029406375e+01 1.2802651188445202e+01 0.0000000000000000e+00 0 0 0
237 1 3.8344433538195268e+01 1.3520452472234616e+01 0.0000000000000000e+00 0 0 0
238 1 3.9522683897453646e+01 1.2737675712522657e+01 0.0000000000000000e+00 0 0 0
239 1 -1.5036723085995347e+00 1.4901976288025542e+01 0.0000000000000000e+00 0 0 0
240 1 -3.0861200116221127e-01 1.5586584862496752e+01 0.0000000000000000e+00 0 0 0
241 1 9.5355330912473191e-01 1.4939581540246841e+01 0.0000000000000000e+00 0 0 0
242 1 2.2132247364855071e+00 1.5556297099680139e+01 0.0000000000000000e+00 0 0 0
243 1 3.4637650469875467e+00 1.4920757140882042e+01 0.0000000000000000e+00 0 0 0
244 1 4.7160838321656771e+00 1.5543750223118646e+01 0.0000000000000000e+00 0 0 0
245 1 5.9612978871559497e+00 1.4905208054214794e+01 0.0000000000000000e+00 0 0 0
246 1 7.2102680645580746e+00 1.5532443584944962e+01 0.0000000000000000e+00 0 0 0
247 1 8.4538621285553006e+00 1.4895070442968475e+01 0.0000000000000000e+00 0 0 0
248 1 9.7013631907117652e+00 1.5524988070045625e+01 0.0000000000000000e+00 0 0 0
249 1 1.0945039759750763e+01 1.4890490698464548e+01 0.0000000000000000e+00 0 0 0
250 1 1.2191587468412608e+01 1.5521949681222472e+01 0.0000000000000000e+00 0 0 0
251 1 1.3435358237100692e+01 1.4886141758961344e+01 0.0000000000000000e+00 0 0 0
252 1 1.4681629497057148e+01 1.5516584175889786e+01 0.0000000000000000e+00 0 0 0
253 1 1.5924785583266459e+01 1.4879765402810509e+01 0.0000000000000000e+00 0 0 0
254 1 1.7169594549661930e+01 1.5511466675504838e+01 0.0000000000000000e+00 0 0 0
255 1 1.8412619515043399e+01 1.4875915875526596e+01 0.0000000000000000e+00 0 0 0
256 1 1.9656094436541526e+01 1.5510632772720360e+01 0.0000000000000000e+00 0 0 0
257 1 2.0900059937041725e+01 1.4877453161274616e+01 0.0000000000000000e+00 0 0 0
258 1 2.2142618754703673e+01 1.5514043889684821e+01 0.0000000000000000e+00 0 0 0
259 1 2.3388571794684093e+01 1.4883353822599997e+01 0.0000000000000000e+00 0 0 0
260 1 2.4632030171794835e+01 1.5519388830680796e+01 0.0000000000000000e+00 0 0 0
261 1 2.5878227423338942e+01 1.4887412865917787e+01 0.0000000000000000e+00 0 0 0
262 1 2.7122061784567926e+01 1.5522430770294211e+01 0.0000000000000000e+00 0 0 0
263 1 2.8368488271238419e+01 1.4891383867501753e+01 0.0000000000000000e+00 0 0 0
264 1 2.9612457886605714e+01 1.5527362861381217e+01 0.0000000000000000e+00 0 0 0
265 1 3.0860482904863140e+01 1.4899422386275413e+01 0.0000000000000000e+00 0 0 0
266 1 3.2104508021365980e+01 1.5537917472373035e+01 0.0000000000000000e+00 0 0 0
267 1 3.3354323398517600e+01 1.4911708181047976e+01 0.0000000000000000e+00 0 0 0
268 1 3.4601939731748196e+01 1.5548058283189878e+01 0.0000000000000000e+00 0 0 0
269 1 3.5856052984517568e+01 1.4925659649942329e+01 0.0000000000000000e+00 0 0 0
270 1 3.7113537768866131e+01 1.5549496416729395e+01 0.0000000000000000e+00 0 0 0
271 1 3.8383677962106709e+01 1.4939388070558190e+01 0.0000000000000000e+00 0 0 0
272 1 3.9549247249494570e+01 1.5636916306886084e+01 0.0000000000000000e+00 0 0 0

Velocities

1 0.0000000000000000e+00 0.0000000000000000e+00 0.0000000000000000e+00
2 0.0000000000000000e+00 0.0000000000000000e+00 0.0000000000000000e+00
3 0.0000000000000000e+00 0.0000000000000000e+00 0.0000000000000000e+00
4 0.0000000000000000e+00 0.0000000000000000e+00 0.0000000000000000e+00
5 0.0000000000000000e+00 0.0000000000000000e+00 0.0000000000000000e+00
6 0.0000000000000000e+00 0.0000000000000000e+00 0.0000000000000000e+00
7 0.0000000000000000e+00 0.0000000000000000e+00 0.0000000000000000e+00
8 0.0000000000000000e+00 0.0000000000000000e+00 0.0000000000000000e+00
9 0.0000000000000000e+00 0.0000000000000000e+00 0.0000000000000000e+00
10 0.0000000000000000e+00 0.0000000000000000e+00 0.0000000000000000e+00
11 0.0000000000000000e+00 0.0000000000000000e+00 0.0000000000000000e+00
12 0.0000000000000000e+00 0.0000000000000000e+00 0.0000000000000000e+00
13 0.0000000000000000e+00 0.0000000000000000e+00 0.0000000000000000e+00
14 0.0000000000000000e+00 0.0000000000000000e+00 0.0000000000000000e+00
15 0.0000000000000000e+00 0.0000000000000000e+00 0.0000000000000000e+00
16 0.0000000000000000e+00 0.0000000000000000e+00 0.0000000000000000e+00
17 0.0000000000000000e+00 0.0000000000000000e+00 0.0000000000000000e+00
18 0.0000000000000000e+00 0.0000000000000000e+00 0.0000000000000000e+00
19 0.0000000000000000e+00 0.0000000000000000e+00 0.0000000000000000e+00
20 0.0000000000000000e+00 0.0000000000000000e+00 0.0000000000000000e+00
21 0.0000000000000000e+00 0.0000000000000000e+00 0.0000000000000000e+00
22 0.0000000000000000e+00 0.0000000000000000e+00 0.0000000000000000e+00
23 0.0000000000000000e+00 0.0000000000000000e+00 0.0000000000000000e+00
24 0.0000000000000000e+00 0.0000000000000000e+00 0.0000000000000000e+00
25 0.0000000000000000e+00 0.0000000000000000e+00 0.0000000000000000e+00
26 0.0000000000000000e+00 0.0000000000000000e+00 0.0000000000000000e+00
27 0.0000000000000000e+00 0.0000000000000000e+00 0.0000000000000000e+00
28 0.0000000000000000e+00 0.0000000000000000e+00 0.0000000000000000e+00
29 0.0000000000000000e+00 0.0000000000000000e+00 0.0000000000000000e+00
30 0.0000000000000000e+00 0.0000000000000000e+00 0.0000000000000000e+00
31 0.0000000000000000e+00 0.0000000000000000e+00 0.0000000000000000e+00
32 0.0000000000000000e+00 0.0000000000000000e+00 0.0000000000000000e+00
33 0.0000000000000000e+00 0.0000000000000000e+00 0.0000000000000000e+00
34 0.0000000000000000e+00 0.0000000000000000e+00 0.0000000000000000e+00
35 0.0000000000000000e+00 0.0000000000000000e+00 0.0000000000000000e+00
36 0.0000000000000000e+00 0.0000000000000000e+00 0.0000000000000000e+00
37 0.0000000000000000e+00 0.0000000000000000e+00 0.0000000000000000e+00
70 0.0000000000000000e+00 0.0000000000000000e+00 0.0000000000000000e+00
38 0.0000000000000000e+00 0.0000000000000000e+00 0.0000000000000000e+00
39 0.0000000000000000e+00 0.0000000000000000e+00 0.0000000000000000e+00
40 0.0000000000000000e+00 0.0000000000000000e+00 0.0000000000000000e+00
72 0.0000000000000000e+00 0.0000000000000000e+00 0.0000000000000000e+00
74 0.0000000000000000e+00 0.0000000000000000e+00 0.0000000000000000e+00
41 0.0000000000000000e+00 0.0000000000000000e+00 0.0000000000000000e+00
42 0.0000000000000000e+00 0.0000000000000000e+00 0.0000000000000000e+00
76 0.0000000000000000e+00 0.0000000000000000e+00 0.0000000000000000e+00
43 0.0000000000000000e+00 0.0000000000000000e+00 0.0000000000000000e+00
44 0.0000000000000000e+00 0.0000000000000000e+00 0.0000000000000000e+00
45 0.0000000000000000e+00 0.0000000000000000e+00 0.0000000000000000e+00
78 0.0000000000000000e+00 0.0000000000000000e+00 0.0000000000000000e+00
46 0.0000000000000000e+00 0.0000000000000000e+00 0.0000000000000000e+00
47 0.0000000000000000e+00 0.0000000000000000e+00 0.0000000000000000e+00
48 0.0000000000000000e+00 0.0000000000000000e+00 0.0000000000000000e+00
80 0.0000000000000000e+00 0.0000000000000000e+00 0.0000000000000000e+00
82 0.0000000000000000e+00 0.0000000000000000e+00 0.0000000000000000e+00
49 0.0000000000000000e+00 0.0000000000000000e+00 0.0000000000000000e+00
50 0.0000000000000000e+00 0.0000000000000000e+00 0.0000000000000000e+00
84 0.0000000000000000e+00 0.0000000000000000e+00 0.0000000000000000e+00
51 0.0000000000000000e+00 0.0000000000000000e+00 0.0000000000000000e+00
52 0.0000000000000000e+00 0.0000000000000000e+00 0.0000000000000000e+00
53 0.0000000000000000e+00 0.0000000000000000e+00 0.0000000000000000e+00
86 0.0000000000000000e+00 0.0000000000000000e+00 0.0000000000000000e+00
54 0.0000000000000000e+00 0.0000000000000000e+00 0.0000000000000000e+00
55 0.0000000000000000e+00 0.0000000000000000e+00 0.0000000000000000e+00
56 0.0000000000000000e+00 0.0000000000000000e+00 0.0000000000000000e+00
88 0.0000000000000000e+00 0.0000000000000000e+00 0.0000000000000000e+00
90 0.0000000000000000e+00 0.0000000000000000e+00 0.0000000000000000e+00
57 0.0000000000000000e+00 0.0000000000000000e+00 0.0000000000000000e+00
58 0.0000000000000000e+00 0.0000000000000000e+00 0.0000000000000000e+00
92 0.0000000000000000e+00 0.0000000000000000e+00 0.0000000000000000e+00
59 0.0000000000000000e+00 0.0000000000000000e+00 0.0000000000000000e+00
60 0.0000000000000000e+00 0.0000000000000000e+00 0.0000000000000000e+00
61 0.0000000000000000e+00 0.0000000000000000e+00 0.0000000000000000e+00
94 0.0000000000000000e+00 0.0000000000000000e+00 0.0000000000000000e+00
62 0.0000000000000000e+00 0.0000000000000000e+00 0.0000000000000000e+00
63 0.0000000000000000e+00 0.0000000000000000e+00 0.0000000000000000e+00
64 0.0000000000000000e+00 0.0000000000000000e+00 0.0000000000000000e+00
96 0.0000000000000000e+00 0.0000000000000000e+00 0.0000000000000000e+00
98 0.0000000000000000e+00 0.0000000000000000e+00 0.0000000000000000e+00
65 0.0000000000000000e+00 0.0000000000000000e+00 0.0000000000000000e+00
66 0.0000000000000000e+00 0.0000000000000000e+00 0.0000000000000000e+00
100 0.0000000000000000e+00 0.0000000000000000e+00 0.0000000000000000e+00
67 0.0000000000000000e+00 0.0000000000000000e+00 0.0000000000000000e+00
68 0.0000000000000000e+00 0.0000000000000000e+00 0.0000000000000000e+00
102 0.0000000000000000e+00 0.0000000000000000e+00 0.0000000000000000e+00
69 0.0000000000000000e+00 0.0000000000000000e+00 0.0000000000000000e+00
71 0.0000000000000000e+00 0.0000000000000000e+00 0.0000000000000000e+00
103 0.0000000000000000e+00 0.0000000000000000e+00 0.0000000000000000e+00
104 0.0000000000000000e+00 0.0000000000000000e+00 0.0000000000000000e+00
105 0.0000000000000000e+00 0.0000000000000000e+00 0.0000000000000000e+00
73 0.0000000000000000e+00 0.0000000000000000e+00 0.0000000000000000e+00
106 0.0000000000000000e+00 0.0000000000000000e+00 0.0000000000000000e+00
107 0.0000000000000000e+00 0.0000000000000000e+00 0.0000000000000000e+00
108 0.0000000000000000e+00 0.0000000000000000e+00 0.0000000000000000e+00
75 0.0000000000000000e+00 0.0000000000000000e+00 0.0000000000000000e+00
109 0.0000000000000000e+00 0.0000000000000000e+00 0.0000000000000000e+00
110 0.0000000000000000e+00 0.0000000000000000e+00 0.0000000000000000e+00
77 0.0000000000000000e+00 0.0000000000000000e+00 0.0000000000000000e+00
79 0.0000000000000000e+00 0.0000000000000000e+00 0.0000000000000000e+00
111 0.0000000000000000e+00 0.0000000000000000e+00 0.0000000000000000e+00
112 0.0000000000000000e+00 0.0000000000000000e+00 0.0000000000000000e+00
113 0.0000000000000000e+00 0.0000000000000000e+00 0.0000000000000000e+00